ITEM: TIMESTEP
501
ITEM: NUMBER OF ATOMS
34
ITEM: BOX BOUNDS pp pp pp
0 8.72838
0 8.72838
0 8.72838
ITEM: ATOMS id mol type xu yu zu x y z 
1 1 1 3.96202 5.31604 8.76167 3.96202 5.31604 0.0332893 
2 1 2 4.47223 4.46 0.474871 4.47223 4.46 0.474871 
3 1 2 3.99022 4.26566 1.9139 3.99022 4.26566 1.9139 
4 1 1 4.50051 3.4097 2.35552 4.50051 3.4097 2.35552 
5 1 1 5.54772 4.63725 0.472722 5.54772 4.63725 0.472722 
6 1 1 4.25032 3.56516 8.62177 4.25032 3.56516 8.62177 
7 1 3 2.5793 4.03291 1.91659 2.5793 4.03291 1.91659 
8 1 2 4.30149 5.52179 2.73007 4.30149 5.52179 2.73007 
9 1 1 5.37695 5.69923 2.72796 5.37695 5.69923 2.72796 
10 1 1 3.9581 5.38333 3.75526 3.9581 5.38333 3.75526 
11 1 1 3.79116 6.37773 2.28844 3.79116 6.37773 2.28844 
12 1 4 2.22718 3.79792 3.06079 2.22718 3.79792 3.06079 
13 1 5 2.9604 2.90866 1.33935 2.9604 2.90866 1.33935 
14 1 2 2.06438 1.92874 1.84264 2.06438 1.92874 1.84264 
15 1 1 2.3099 0.957336 1.41347 2.3099 0.957336 1.41347 
16 1 1 1.04308 2.19751 1.57282 1.04308 2.19751 1.57282 
17 1 1 2.15238 1.87919 2.92796 2.15238 1.87919 2.92796 
18 2 1 3.20388 7.65966 4.8702 3.20388 7.65966 4.8702 
19 2 2 2.95367 6.59916 4.84132 2.95367 6.59916 4.84132 
20 2 2 1.94242 6.34405 3.72186 1.94242 6.34405 3.72186 
21 2 1 1.69218 5.28355 3.69296 1.69218 5.28355 3.69296 
22 2 1 2.52095 6.30182 5.79655 2.52095 6.30182 5.79655 
23 2 1 3.85659 6.01776 4.65477 3.85659 6.01776 4.65477 
24 2 3 2.51007 6.7342 2.46867 2.51007 6.7342 2.46867 
25 2 2 0.675046 7.16017 3.98378 0.675046 7.16017 3.98378 
26 2 1 0.242349 6.86283 4.93901 0.242349 6.86283 4.93901 
27 2 1 8.68297 6.97847 3.18627 8.68297 6.97847 3.18627 
28 2 1 0.925292 8.22067 4.01267 0.925292 8.22067 4.01267 
29 2 4 1.72396 6.44781 1.58075 1.72396 6.44781 1.58075 
30 2 5 3.28369 5.69377 2.71651 3.28369 5.69377 2.71651 
31 2 2 3.50783 5.10588 1.44349 3.50783 5.10588 1.44349 
32 2 1 4.14577 4.22916 1.55536 4.14577 4.22916 1.55536 
33 2 1 3.99568 5.82918 0.790082 3.99568 5.82918 0.790082 
34 2 1 2.55411 4.80805 1.00783 2.55411 4.80805 1.00783 
